/*--------------------------------*- C++ -*----------------------------------*\
  =========                 |
  \\      /  F ield         | OpenFOAM: The Open Source CFD Toolbox
   \\    /   O peration     | Website:  https://openfoam.org
    \\  /    A nd           | Version:  13
     \\/     M anipulation  |
\*---------------------------------------------------------------------------*/
FoamFile
{
    format      ascii;
    class       volScalarField;
    location    "15/slab";
    object      T;
}
// * * * * * * * * * * * * * * * * * * * * * * * * * * * * * * * * * * * * * //

dimensions      [0 0 0 1 0 0 0];

internalField   nonuniform List<scalar> 
200
(
300.99634
300.98902
300.9817
300.97438
300.96706
300.95974
300.95243
300.94513
300.93782
300.93052
300.92323
300.91595
300.90867
300.90139
300.89413
300.88688
300.87963
300.87239
300.86517
300.85795
300.85075
300.84355
300.83637
300.82921
300.82205
300.81492
300.80779
300.80068
300.79359
300.78651
300.77945
300.77241
300.76539
300.75838
300.75139
300.74442
300.73748
300.73055
300.72364
300.71676
300.70989
300.70305
300.69623
300.68944
300.68267
300.67592
300.6692
300.6625
300.65583
300.64918
300.64256
300.63596
300.6294
300.62286
300.61634
300.60986
300.60341
300.59698
300.59058
300.58421
300.57788
300.57157
300.56529
300.55905
300.55283
300.54665
300.54049
300.53437
300.52829
300.52223
300.51621
300.51022
300.50426
300.49834
300.49245
300.48659
300.48077
300.47498
300.46923
300.46351
300.45783
300.45218
300.44656
300.44098
300.43544
300.42993
300.42446
300.41902
300.41362
300.40825
300.40293
300.39763
300.39237
300.38715
300.38196
300.37681
300.3717
300.36662
300.36158
300.35657
300.3516
300.34667
300.34177
300.33691
300.33208
300.32729
300.32254
300.31782
300.31314
300.30849
300.30387
300.2993
300.29475
300.29025
300.28577
300.28134
300.27693
300.27256
300.26823
300.26393
300.25966
300.25543
300.25122
300.24706
300.24292
300.23882
300.23475
300.23072
300.22671
300.22274
300.2188
300.21488
300.211
300.20716
300.20334
300.19955
300.19579
300.19206
300.18836
300.18469
300.18104
300.17743
300.17384
300.17028
300.16675
300.16324
300.15976
300.1563
300.15287
300.14947
300.14609
300.14274
300.13941
300.1361
300.13281
300.12955
300.12631
300.12309
300.1199
300.11672
300.11357
300.11043
300.10732
300.10422
300.10114
300.09808
300.09504
300.09202
300.08901
300.08602
300.08304
300.08008
300.07714
300.07421
300.07129
300.06839
300.0655
300.06262
300.05975
300.05689
300.05405
300.05122
300.04839
300.04558
300.04277
300.03997
300.03718
300.0344
300.03162
300.02885
300.02609
300.02333
300.02057
300.01782
300.01507
300.01233
300.00959
300.00685
300.00411
300.00137
)
;

boundaryField
{
    inlet
    {
        type            fixedValue;
        value           uniform 301;
    }
    outlet
    {
        type            fixedValue;
        value           uniform 300;
    }
    sides
    {
        type            empty;
    }
}


// ************************************************************************* //
