/*--------------------------------*- C++ -*----------------------------------*\
  =========                 |
  \\      /  F ield         | OpenFOAM: The Open Source CFD Toolbox
   \\    /   O peration     | Website:  https://openfoam.org
    \\  /    A nd           | Version:  13
     \\/     M anipulation  |
\*---------------------------------------------------------------------------*/
FoamFile
{
    format      ascii;
    class       volScalarField;
    location    "35/slab";
    object      T;
}
// * * * * * * * * * * * * * * * * * * * * * * * * * * * * * * * * * * * * * //

dimensions      [0 0 0 1 0 0 0];

internalField   nonuniform List<scalar> 
200
(
300.99734
300.99202
300.9867
300.98138
300.97605
300.97073
300.96541
300.96009
300.95478
300.94946
300.94414
300.93882
300.93351
300.92819
300.92288
300.91757
300.91225
300.90694
300.90164
300.89633
300.89102
300.88572
300.88042
300.87511
300.86982
300.86452
300.85922
300.85393
300.84864
300.84335
300.83806
300.83278
300.8275
300.82222
300.81694
300.81167
300.8064
300.80113
300.79586
300.7906
300.78534
300.78008
300.77483
300.76958
300.76433
300.75909
300.75384
300.74861
300.74337
300.73814
300.73291
300.72769
300.72247
300.71725
300.71204
300.70683
300.70163
300.69643
300.69123
300.68604
300.68085
300.67566
300.67048
300.66531
300.66013
300.65496
300.6498
300.64464
300.63949
300.63434
300.62919
300.62405
300.61891
300.61378
300.60865
300.60353
300.59841
300.5933
300.58819
300.58308
300.57799
300.57289
300.5678
300.56272
300.55764
300.55256
300.54749
300.54243
300.53737
300.53231
300.52726
300.52221
300.51717
300.51214
300.50711
300.50208
300.49706
300.49205
300.48704
300.48203
300.47703
300.47204
300.46705
300.46206
300.45708
300.45211
300.44714
300.44217
300.43722
300.43226
300.42731
300.42237
300.41743
300.41249
300.40756
300.40264
300.39772
300.3928
300.38789
300.38299
300.37808
300.37319
300.3683
300.36341
300.35853
300.35365
300.34878
300.34391
300.33905
300.33419
300.32934
300.32449
300.31964
300.3148
300.30997
300.30513
300.30031
300.29548
300.29066
300.28585
300.28104
300.27623
300.27143
300.26663
300.26183
300.25704
300.25225
300.24747
300.24269
300.23791
300.23314
300.22837
300.22361
300.21885
300.21409
300.20933
300.20458
300.19983
300.19508
300.19034
300.1856
300.18086
300.17613
300.1714
300.16667
300.16194
300.15722
300.1525
300.14778
300.14307
300.13835
300.13364
300.12893
300.12422
300.11952
300.11482
300.11012
300.10542
300.10072
300.09602
300.09133
300.08664
300.08194
300.07725
300.07257
300.06788
300.06319
300.05851
300.05382
300.04914
300.04446
300.03978
300.03509
300.03041
300.02573
300.02105
300.01638
300.0117
300.00702
300.00234
)
;

boundaryField
{
    inlet
    {
        type            fixedValue;
        value           uniform 301;
    }
    outlet
    {
        type            fixedValue;
        value           uniform 300;
    }
    sides
    {
        type            empty;
    }
}


// ************************************************************************* //
