/*--------------------------------*- C++ -*----------------------------------*\
  =========                 |
  \\      /  F ield         | OpenFOAM: The Open Source CFD Toolbox
   \\    /   O peration     | Website:  https://openfoam.org
    \\  /    A nd           | Version:  13
     \\/     M anipulation  |
\*---------------------------------------------------------------------------*/
FoamFile
{
    format      ascii;
    class       volScalarField;
    location    "25/slab";
    object      T;
}
// * * * * * * * * * * * * * * * * * * * * * * * * * * * * * * * * * * * * * //

dimensions      [0 0 0 1 0 0 0];

internalField   nonuniform List<scalar> 
200
(
300.99707
300.99121
300.98535
300.97949
300.97364
300.96778
300.96193
300.95607
300.95022
300.94437
300.93852
300.93267
300.92683
300.92099
300.91515
300.90932
300.90348
300.89766
300.89183
300.88601
300.88019
300.87438
300.86857
300.86277
300.85697
300.85118
300.84539
300.83961
300.83383
300.82806
300.82229
300.81653
300.81078
300.80503
300.7993
300.79356
300.78784
300.78212
300.77641
300.77071
300.76501
300.75933
300.75365
300.74798
300.74232
300.73666
300.73102
300.72538
300.71976
300.71414
300.70854
300.70294
300.69735
300.69177
300.6862
300.68065
300.6751
300.66956
300.66404
300.65852
300.65302
300.64752
300.64204
300.63657
300.63111
300.62566
300.62023
300.6148
300.60939
300.60399
300.5986
300.59322
300.58786
300.5825
300.57716
300.57183
300.56652
300.56122
300.55593
300.55065
300.54538
300.54013
300.53489
300.52967
300.52445
300.51925
300.51407
300.50889
300.50373
300.49859
300.49345
300.48833
300.48323
300.47813
300.47305
300.46798
300.46293
300.45789
300.45287
300.44785
300.44285
300.43787
300.43289
300.42794
300.42299
300.41806
300.41314
300.40823
300.40334
300.39846
300.3936
300.38875
300.38391
300.37908
300.37427
300.36947
300.36469
300.35991
300.35515
300.35041
300.34567
300.34095
300.33624
300.33155
300.32686
300.32219
300.31753
300.31289
300.30825
300.30363
300.29902
300.29442
300.28984
300.28526
300.2807
300.27615
300.27161
300.26708
300.26256
300.25806
300.25356
300.24908
300.2446
300.24014
300.23569
300.23124
300.22681
300.22239
300.21798
300.21358
300.20918
300.2048
300.20042
300.19606
300.1917
300.18736
300.18302
300.17869
300.17436
300.17005
300.16575
300.16145
300.15716
300.15287
300.1486
300.14433
300.14007
300.13581
300.13157
300.12732
300.12309
300.11886
300.11464
300.11042
300.10621
300.102
300.0978
300.0936
300.08941
300.08522
300.08103
300.07685
300.07268
300.0685
300.06433
300.06017
300.05601
300.05185
300.04769
300.04353
300.03938
300.03523
300.03108
300.02693
300.02279
300.01864
300.0145
300.01036
300.00621
300.00207
)
;

boundaryField
{
    inlet
    {
        type            fixedValue;
        value           uniform 301;
    }
    outlet
    {
        type            fixedValue;
        value           uniform 300;
    }
    sides
    {
        type            empty;
    }
}


// ************************************************************************* //
