/*--------------------------------*- C++ -*----------------------------------*\
  =========                 |
  \\      /  F ield         | OpenFOAM: The Open Source CFD Toolbox
   \\    /   O peration     | Website:  https://openfoam.org
    \\  /    A nd           | Version:  13
     \\/     M anipulation  |
\*---------------------------------------------------------------------------*/
FoamFile
{
    format      ascii;
    class       volScalarField;
    location    "20/slab";
    object      T;
}
// * * * * * * * * * * * * * * * * * * * * * * * * * * * * * * * * * * * * * //

dimensions      [0 0 0 1 0 0 0];

internalField   nonuniform List<scalar> 
200
(
300.9968
300.99039
300.98398
300.97758
300.97117
300.96477
300.95837
300.95197
300.94558
300.93918
300.93279
300.92641
300.92003
300.91365
300.90728
300.90091
300.89455
300.88819
300.88184
300.87549
300.86916
300.86283
300.8565
300.85019
300.84388
300.83758
300.83129
300.82501
300.81874
300.81248
300.80622
300.79998
300.79375
300.78753
300.78132
300.77512
300.76894
300.76276
300.7566
300.75045
300.74431
300.73819
300.73208
300.72599
300.7199
300.71384
300.70778
300.70175
300.69572
300.68972
300.68372
300.67775
300.67179
300.66585
300.65992
300.65401
300.64811
300.64224
300.63638
300.63054
300.62472
300.61891
300.61312
300.60736
300.60161
300.59587
300.59016
300.58447
300.5788
300.57314
300.56751
300.56189
300.5563
300.55073
300.54517
300.53964
300.53412
300.52863
300.52316
300.51771
300.51228
300.50687
300.50148
300.49612
300.49077
300.48545
300.48015
300.47486
300.46961
300.46437
300.45915
300.45396
300.44879
300.44364
300.43851
300.43341
300.42832
300.42326
300.41822
300.4132
300.40821
300.40323
300.39828
300.39335
300.38844
300.38356
300.3787
300.37385
300.36903
300.36423
300.35946
300.3547
300.34997
300.34526
300.34057
300.3359
300.33125
300.32663
300.32202
300.31744
300.31287
300.30833
300.30381
300.29931
300.29483
300.29037
300.28593
300.28151
300.27711
300.27273
300.26837
300.26403
300.25971
300.2554
300.25112
300.24685
300.24261
300.23838
300.23417
300.22998
300.2258
300.22165
300.21751
300.21338
300.20928
300.20519
300.20112
300.19706
300.19302
300.189
300.18499
300.181
300.17702
300.17306
300.16911
300.16518
300.16126
300.15735
300.15346
300.14958
300.14571
300.14186
300.13802
300.13419
300.13037
300.12656
300.12277
300.11898
300.11521
300.11145
300.1077
300.10395
300.10022
300.0965
300.09278
300.08907
300.08537
300.08168
300.078
300.07432
300.07065
300.06699
300.06333
300.05968
300.05604
300.0524
300.04876
300.04513
300.04151
300.03788
300.03426
300.03065
300.02704
300.02343
300.01982
300.01621
300.01261
300.00901
300.0054
300.0018
)
;

boundaryField
{
    inlet
    {
        type            fixedValue;
        value           uniform 301;
    }
    outlet
    {
        type            fixedValue;
        value           uniform 300;
    }
    sides
    {
        type            empty;
    }
}


// ************************************************************************* //
