/*--------------------------------*- C++ -*----------------------------------*\
  =========                 |
  \\      /  F ield         | OpenFOAM: The Open Source CFD Toolbox
   \\    /   O peration     | Website:  https://openfoam.org
    \\  /    A nd           | Version:  13
     \\/     M anipulation  |
\*---------------------------------------------------------------------------*/
FoamFile
{
    format      ascii;
    class       volScalarField;
    location    "5/slab";
    object      T;
}
// * * * * * * * * * * * * * * * * * * * * * * * * * * * * * * * * * * * * * //

dimensions      [0 0 0 1 0 0 0];

internalField   nonuniform List<scalar> 
200
(
300.99364
300.98093
300.96823
300.95553
300.94285
300.93018
300.91752
300.90489
300.89228
300.8797
300.86716
300.85464
300.84216
300.82972
300.81733
300.80498
300.79268
300.78043
300.76824
300.75611
300.74404
300.73203
300.72008
300.70821
300.6964
300.68468
300.67302
300.66145
300.64996
300.63855
300.62723
300.616
300.60486
300.59381
300.58285
300.57199
300.56124
300.55058
300.54002
300.52957
300.51922
300.50898
300.49885
300.48882
300.47891
300.46911
300.45943
300.44986
300.4404
300.43107
300.42185
300.41274
300.40376
300.3949
300.38616
300.37753
300.36903
300.36066
300.3524
300.34427
300.33626
300.32837
300.3206
300.31296
300.30544
300.29804
300.29077
300.28362
300.27659
300.26968
300.26289
300.25622
300.24968
300.24325
300.23694
300.23075
300.22468
300.21872
300.21288
300.20715
300.20154
300.19605
300.19066
300.18539
300.18022
300.17517
300.17022
300.16538
300.16065
300.15602
300.15149
300.14707
300.14275
300.13852
300.1344
300.13037
300.12644
300.1226
300.11885
300.1152
300.11164
300.10816
300.10478
300.10147
300.09826
300.09512
300.09207
300.0891
300.08621
300.08339
300.08065
300.07798
300.07539
300.07287
300.07042
300.06804
300.06573
300.06348
300.06129
300.05917
300.05712
300.05512
300.05318
300.0513
300.04948
300.04771
300.04599
300.04433
300.04272
300.04116
300.03965
300.03818
300.03677
300.03539
300.03407
300.03278
300.03154
300.03034
300.02917
300.02805
300.02696
300.02591
300.0249
300.02392
300.02297
300.02206
300.02117
300.02032
300.0195
300.0187
300.01794
300.0172
300.01648
300.01579
300.01513
300.01449
300.01387
300.01328
300.0127
300.01215
300.01162
300.0111
300.0106
300.01013
300.00967
300.00922
300.00879
300.00838
300.00798
300.00759
300.00722
300.00687
300.00652
300.00619
300.00586
300.00555
300.00525
300.00496
300.00467
300.0044
300.00413
300.00388
300.00363
300.00338
300.00314
300.00291
300.00269
300.00247
300.00225
300.00204
300.00184
300.00163
300.00143
300.00124
300.00104
300.00085
300.00066
300.00047
300.00028
300.00009
)
;

boundaryField
{
    inlet
    {
        type            fixedValue;
        value           uniform 301;
    }
    outlet
    {
        type            fixedValue;
        value           uniform 300;
    }
    sides
    {
        type            empty;
    }
}


// ************************************************************************* //
