/*--------------------------------*- C++ -*----------------------------------*\
  =========                 |
  \\      /  F ield         | OpenFOAM: The Open Source CFD Toolbox
   \\    /   O peration     | Website:  https://openfoam.org
    \\  /    A nd           | Version:  13
     \\/     M anipulation  |
\*---------------------------------------------------------------------------*/
FoamFile
{
    format      ascii;
    class       volScalarField;
    location    "10/slab";
    object      T;
}
// * * * * * * * * * * * * * * * * * * * * * * * * * * * * * * * * * * * * * //

dimensions      [0 0 0 1 0 0 0];

internalField   nonuniform List<scalar> 
200
(
300.99552
300.98657
300.97761
300.96866
300.95972
300.95078
300.94184
300.93291
300.92399
300.91508
300.90619
300.8973
300.88842
300.87956
300.87072
300.86189
300.85308
300.84428
300.83551
300.82676
300.81803
300.80932
300.80063
300.79197
300.78334
300.77473
300.76615
300.7576
300.74907
300.74058
300.73212
300.7237
300.7153
300.70694
300.69862
300.69033
300.68208
300.67387
300.66569
300.65756
300.64947
300.64141
300.6334
300.62544
300.61751
300.60963
300.6018
300.59401
300.58627
300.57857
300.57093
300.56333
300.55578
300.54828
300.54083
300.53343
300.52609
300.51879
300.51155
300.50436
300.49723
300.49015
300.48312
300.47615
300.46923
300.46237
300.45557
300.44882
300.44213
300.4355
300.42892
300.4224
300.41594
300.40954
300.4032
300.39691
300.39069
300.38452
300.37842
300.37237
300.36638
300.36045
300.35459
300.34878
300.34303
300.33734
300.33172
300.32615
300.32064
300.31519
300.30981
300.30448
300.29921
300.29401
300.28886
300.28377
300.27874
300.27377
300.26887
300.26401
300.25922
300.25449
300.24982
300.2452
300.24064
300.23614
300.2317
300.22731
300.22298
300.21871
300.21449
300.21033
300.20622
300.20217
300.19818
300.19423
300.19035
300.18651
300.18273
300.179
300.17533
300.1717
300.16813
300.16461
300.16114
300.15772
300.15435
300.15102
300.14775
300.14452
300.14134
300.13821
300.13512
300.13208
300.12909
300.12614
300.12323
300.12037
300.11755
300.11477
300.11203
300.10934
300.10668
300.10407
300.10149
300.09896
300.09646
300.094
300.09157
300.08918
300.08683
300.08451
300.08223
300.07998
300.07776
300.07557
300.07342
300.0713
300.0692
300.06714
300.0651
300.0631
300.06112
300.05916
300.05724
300.05534
300.05346
300.05161
300.04978
300.04797
300.04619
300.04442
300.04268
300.04095
300.03925
300.03756
300.03589
300.03424
300.03261
300.03099
300.02938
300.02779
300.02621
300.02465
300.02309
300.02155
300.02002
300.0185
300.01698
300.01548
300.01398
300.01249
300.01101
300.00953
300.00806
300.00659
300.00512
300.00365
300.00219
300.00073
)
;

boundaryField
{
    inlet
    {
        type            fixedValue;
        value           uniform 301;
    }
    outlet
    {
        type            fixedValue;
        value           uniform 300;
    }
    sides
    {
        type            empty;
    }
}


// ************************************************************************* //
