/*--------------------------------*- C++ -*----------------------------------*\
  =========                 |
  \\      /  F ield         | OpenFOAM: The Open Source CFD Toolbox
   \\    /   O peration     | Website:  https://openfoam.org
    \\  /    A nd           | Version:  13
     \\/     M anipulation  |
\*---------------------------------------------------------------------------*/
FoamFile
{
    format      ascii;
    class       volScalarField;
    location    "900/sic";
    object      C_T2;
}
// * * * * * * * * * * * * * * * * * * * * * * * * * * * * * * * * * * * * * //

dimensions      [0 -3 0 0 1 0 0];

internalField   nonuniform List<scalar> 
100
(
0.33099428
0.3276632
0.32433225
0.32100141
0.31767069
0.31434009
0.31100961
0.30767925
0.304349
0.30101887
0.29768886
0.29435896
0.29102917
0.2876995
0.28436995
0.28104051
0.27771117
0.27438195
0.27105285
0.26772385
0.26439496
0.26106617
0.2577375
0.25440893
0.25108047
0.24775211
0.24442386
0.24109571
0.23776766
0.23443972
0.23111187
0.22778412
0.22445647
0.22112892
0.21780147
0.21447411
0.21114684
0.20781967
0.20449259
0.2011656
0.1978387
0.19451189
0.19118517
0.18785853
0.18453198
0.18120551
0.17787912
0.17455282
0.17122659
0.16790044
0.16457438
0.16124838
0.15792246
0.15459662
0.15127085
0.14794515
0.14461952
0.14129395
0.13796846
0.13464302
0.13131766
0.12799235
0.12466711
0.12134192
0.1180168
0.11469173
0.11136671
0.10804175
0.10471684
0.10139199
0.098067178
0.094742417
0.091417702
0.088093031
0.084768404
0.081443818
0.078119272
0.074794765
0.071470294
0.068145858
0.064821456
0.061497086
0.058172746
0.054848435
0.051524151
0.048199892
0.044875658
0.041551445
0.038227254
0.034903081
0.031578926
0.028254786
0.02493066
0.021606547
0.018282445
0.014958351
0.011634266
0.0083101856
0.0049861097
0.0016620363
)
;

boundaryField
{
    sic_outlet
    {
        type            fixedValue;
        value           uniform 0;
    }
    sides
    {
        type            empty;
    }
    sic_to_pyc
    {
        type            sievertsCoupledMixed;
        refValue        uniform 0.33349268;
        refGradient     uniform 0;
        valueFraction   uniform 0.66666667;
        value           uniform 0.33265988;
        Ks              
        {
            X0              X0 [ 0 -3 0 0 1 0 0 ] 1000;
            Ea              0;
        }

        KsNbr           
        {
            X0              X0 [ 0 -3 0 0 1 0 0 ] 2000;
            Ea              0;
        }

    }
}


// ************************************************************************* //
