/*--------------------------------*- C++ -*----------------------------------*\
  =========                 |
  \\      /  F ield         | OpenFOAM: The Open Source CFD Toolbox
   \\    /   O peration     | Website:  https://openfoam.org
    \\  /    A nd           | Version:  13
     \\/     M anipulation  |
\*---------------------------------------------------------------------------*/
FoamFile
{
    format      ascii;
    class       volScalarField;
    location    "30/slab";
    object      T;
}
// * * * * * * * * * * * * * * * * * * * * * * * * * * * * * * * * * * * * * //

dimensions      [0 0 0 1 0 0 0];

internalField   nonuniform List<scalar> 
200
(
300.99724
300.99171
300.98619
300.98066
300.97514
300.96961
300.96409
300.95857
300.95305
300.94753
300.94201
300.93649
300.93097
300.92546
300.91995
300.91444
300.90893
300.90342
300.89792
300.89241
300.88691
300.88142
300.87592
300.87043
300.86494
300.85946
300.85397
300.8485
300.84302
300.83755
300.83208
300.82662
300.82116
300.8157
300.81025
300.8048
300.79936
300.79392
300.78848
300.78305
300.77763
300.77221
300.76679
300.76138
300.75598
300.75058
300.74518
300.7398
300.73441
300.72903
300.72366
300.7183
300.71294
300.70758
300.70224
300.6969
300.69156
300.68623
300.68091
300.6756
300.67029
300.66498
300.65969
300.6544
300.64912
300.64385
300.63858
300.63332
300.62806
300.62282
300.61758
300.61235
300.60713
300.60191
300.5967
300.5915
300.58631
300.58112
300.57594
300.57077
300.56561
300.56046
300.55531
300.55017
300.54504
300.53992
300.5348
300.5297
300.5246
300.51951
300.51443
300.50935
300.50429
300.49923
300.49418
300.48914
300.48411
300.47908
300.47406
300.46906
300.46406
300.45907
300.45408
300.44911
300.44414
300.43918
300.43423
300.42929
300.42435
300.41943
300.41451
300.4096
300.4047
300.39981
300.39492
300.39004
300.38517
300.38031
300.37546
300.37061
300.36578
300.36095
300.35612
300.35131
300.3465
300.34171
300.33691
300.33213
300.32735
300.32258
300.31782
300.31307
300.30832
300.30358
300.29885
300.29412
300.28941
300.28469
300.27999
300.27529
300.2706
300.26592
300.26124
300.25657
300.2519
300.24724
300.24259
300.23794
300.2333
300.22867
300.22404
300.21942
300.2148
300.21019
300.20558
300.20098
300.19639
300.1918
300.18721
300.18263
300.17806
300.17349
300.16892
300.16436
300.1598
300.15525
300.1507
300.14616
300.14162
300.13709
300.13255
300.12803
300.1235
300.11898
300.11446
300.10995
300.10543
300.10093
300.09642
300.09192
300.08742
300.08292
300.07842
300.07393
300.06944
300.06495
300.06046
300.05598
300.05149
300.04701
300.04253
300.03805
300.03357
300.02909
300.02461
300.02014
300.01566
300.01119
300.00671
300.00224
)
;

boundaryField
{
    inlet
    {
        type            fixedValue;
        value           uniform 301;
    }
    outlet
    {
        type            fixedValue;
        value           uniform 300;
    }
    sides
    {
        type            empty;
    }
}


// ************************************************************************* //
