/*--------------------------------*- C++ -*----------------------------------*\
  =========                 |
  \\      /  F ield         | OpenFOAM: The Open Source CFD Toolbox
   \\    /   O peration     | Website:  https://openfoam.org
    \\  /    A nd           | Version:  13
     \\/     M anipulation  |
\*---------------------------------------------------------------------------*/
FoamFile
{
    format      ascii;
    class       volScalarField;
    location    "40/slab";
    object      T;
}
// * * * * * * * * * * * * * * * * * * * * * * * * * * * * * * * * * * * * * //

dimensions      [0 0 0 1 0 0 0];

internalField   nonuniform List<scalar> 
200
(
300.9974
300.9922
300.98701
300.98181
300.97662
300.97142
300.96622
300.96103
300.95583
300.95064
300.94544
300.94025
300.93506
300.92986
300.92467
300.91948
300.91429
300.9091
300.90391
300.89872
300.89354
300.88835
300.88316
300.87798
300.8728
300.86762
300.86244
300.85726
300.85208
300.8469
300.84173
300.83655
300.83138
300.82621
300.82104
300.81587
300.81071
300.80554
300.80038
300.79522
300.79006
300.7849
300.77975
300.77459
300.76944
300.76429
300.75914
300.754
300.74885
300.74371
300.73857
300.73344
300.7283
300.72317
300.71804
300.71291
300.70779
300.70266
300.69754
300.69242
300.68731
300.6822
300.67709
300.67198
300.66687
300.66177
300.65667
300.65157
300.64648
300.64138
300.6363
300.63121
300.62612
300.62104
300.61597
300.61089
300.60582
300.60075
300.59568
300.59062
300.58556
300.5805
300.57544
300.57039
300.56534
300.5603
300.55525
300.55022
300.54518
300.54014
300.53511
300.53009
300.52506
300.52004
300.51502
300.51001
300.50499
300.49998
300.49498
300.48997
300.48497
300.47998
300.47498
300.46999
300.46501
300.46002
300.45504
300.45006
300.44509
300.44011
300.43514
300.43018
300.42522
300.42025
300.4153
300.41034
300.40539
300.40044
300.3955
300.39056
300.38562
300.38068
300.37575
300.37082
300.36589
300.36097
300.35604
300.35112
300.34621
300.3413
300.33638
300.33148
300.32657
300.32167
300.31677
300.31187
300.30698
300.30209
300.2972
300.29231
300.28742
300.28254
300.27766
300.27279
300.26791
300.26304
300.25817
300.2533
300.24844
300.24357
300.23871
300.23385
300.229
300.22414
300.21929
300.21444
300.20959
300.20475
300.1999
300.19506
300.19022
300.18538
300.18054
300.17571
300.17087
300.16604
300.16121
300.15638
300.15155
300.14673
300.1419
300.13708
300.13226
300.12744
300.12262
300.1178
300.11298
300.10816
300.10335
300.09854
300.09372
300.08891
300.0841
300.07929
300.07448
300.06967
300.06486
300.06006
300.05525
300.05044
300.04564
300.04083
300.03603
300.03122
300.02642
300.02162
300.01681
300.01201
300.0072
300.0024
)
;

boundaryField
{
    inlet
    {
        type            fixedValue;
        value           uniform 301;
    }
    outlet
    {
        type            fixedValue;
        value           uniform 300;
    }
    sides
    {
        type            empty;
    }
}


// ************************************************************************* //
