/*--------------------------------*- C++ -*----------------------------------*\
  =========                 |
  \\      /  F ield         | OpenFOAM: The Open Source CFD Toolbox
   \\    /   O peration     | Website:  https://openfoam.org
    \\  /    A nd           | Version:  13
     \\/     M anipulation  |
\*---------------------------------------------------------------------------*/
FoamFile
{
    format      ascii;
    class       volScalarField;
    location    "50/slab";
    object      T;
}
// * * * * * * * * * * * * * * * * * * * * * * * * * * * * * * * * * * * * * //

dimensions      [0 0 0 1 0 0 0];

internalField   nonuniform List<scalar> 
200
(
300.99746
300.99239
300.98732
300.98224
300.97717
300.9721
300.96702
300.96195
300.95688
300.9518
300.94673
300.94166
300.93658
300.93151
300.92644
300.92137
300.9163
300.91123
300.90616
300.90109
300.89602
300.89095
300.88588
300.88081
300.87574
300.87067
300.8656
300.86054
300.85547
300.8504
300.84534
300.84027
300.83521
300.83014
300.82508
300.82002
300.81496
300.80989
300.80483
300.79977
300.79471
300.78965
300.7846
300.77954
300.77448
300.76943
300.76437
300.75932
300.75426
300.74921
300.74416
300.73911
300.73406
300.72901
300.72396
300.71891
300.71386
300.70882
300.70377
300.69873
300.69368
300.68864
300.6836
300.67856
300.67352
300.66848
300.66344
300.65841
300.65337
300.64834
300.6433
300.63827
300.63324
300.62821
300.62318
300.61815
300.61312
300.6081
300.60307
300.59805
300.59303
300.58801
300.58298
300.57797
300.57295
300.56793
300.56291
300.5579
300.55289
300.54787
300.54286
300.53785
300.53284
300.52783
300.52283
300.51782
300.51282
300.50781
300.50281
300.49781
300.49281
300.48781
300.48281
300.47782
300.47282
300.46783
300.46283
300.45784
300.45285
300.44786
300.44287
300.43789
300.4329
300.42791
300.42293
300.41795
300.41297
300.40798
300.40301
300.39803
300.39305
300.38807
300.3831
300.37812
300.37315
300.36818
300.36321
300.35824
300.35327
300.3483
300.34334
300.33837
300.33341
300.32844
300.32348
300.31852
300.31356
300.3086
300.30364
300.29868
300.29373
300.28877
300.28382
300.27886
300.27391
300.26896
300.26401
300.25906
300.25411
300.24916
300.24421
300.23926
300.23432
300.22937
300.22443
300.21948
300.21454
300.2096
300.20465
300.19971
300.19477
300.18983
300.18489
300.17996
300.17502
300.17008
300.16514
300.16021
300.15527
300.15034
300.1454
300.14047
300.13554
300.1306
300.12567
300.12074
300.11581
300.11088
300.10595
300.10102
300.09609
300.09116
300.08623
300.0813
300.07637
300.07144
300.06651
300.06158
300.05666
300.05173
300.0468
300.04188
300.03695
300.03202
300.0271
300.02217
300.01724
300.01232
300.00739
300.00246
)
;

boundaryField
{
    inlet
    {
        type            fixedValue;
        value           uniform 301;
    }
    outlet
    {
        type            fixedValue;
        value           uniform 300;
    }
    sides
    {
        type            empty;
    }
}


// ************************************************************************* //
