/*--------------------------------*- C++ -*----------------------------------*\
  =========                 |
  \\      /  F ield         | OpenFOAM: The Open Source CFD Toolbox
   \\    /   O peration     | Website:  https://openfoam.org
    \\  /    A nd           | Version:  13
     \\/     M anipulation  |
\*---------------------------------------------------------------------------*/
FoamFile
{
    format      ascii;
    class       volScalarField;
    location    "45/slab";
    object      T;
}
// * * * * * * * * * * * * * * * * * * * * * * * * * * * * * * * * * * * * * //

dimensions      [0 0 0 1 0 0 0];

internalField   nonuniform List<scalar> 
200
(
300.99744
300.99232
300.9872
300.98208
300.97696
300.97184
300.96672
300.9616
300.95648
300.95136
300.94624
300.94112
300.936
300.93089
300.92577
300.92065
300.91554
300.91042
300.9053
300.90019
300.89507
300.88996
300.88485
300.87973
300.87462
300.86951
300.8644
300.85929
300.85418
300.84907
300.84397
300.83886
300.83375
300.82865
300.82355
300.81844
300.81334
300.80824
300.80314
300.79804
300.79295
300.78785
300.78275
300.77766
300.77257
300.76748
300.76239
300.7573
300.75221
300.74712
300.74204
300.73695
300.73187
300.72679
300.72171
300.71663
300.71156
300.70648
300.70141
300.69633
300.69126
300.68619
300.68113
300.67606
300.671
300.66593
300.66087
300.65581
300.65075
300.6457
300.64064
300.63559
300.63054
300.62549
300.62044
300.6154
300.61035
300.60531
300.60027
300.59523
300.59019
300.58516
300.58012
300.57509
300.57006
300.56503
300.56001
300.55498
300.54996
300.54494
300.53992
300.5349
300.52989
300.52487
300.51986
300.51485
300.50985
300.50484
300.49984
300.49483
300.48983
300.48484
300.47984
300.47485
300.46985
300.46486
300.45987
300.45489
300.4499
300.44492
300.43994
300.43496
300.42998
300.42501
300.42003
300.41506
300.41009
300.40512
300.40016
300.39519
300.39023
300.38527
300.38031
300.37535
300.3704
300.36544
300.36049
300.35554
300.35059
300.34564
300.3407
300.33575
300.33081
300.32587
300.32093
300.316
300.31106
300.30613
300.30119
300.29626
300.29133
300.28641
300.28148
300.27656
300.27163
300.26671
300.26179
300.25687
300.25195
300.24704
300.24212
300.23721
300.2323
300.22739
300.22248
300.21757
300.21266
300.20775
300.20285
300.19795
300.19304
300.18814
300.18324
300.17834
300.17344
300.16855
300.16365
300.15875
300.15386
300.14897
300.14407
300.13918
300.13429
300.1294
300.12451
300.11962
300.11473
300.10985
300.10496
300.10007
300.09519
300.0903
300.08542
300.08054
300.07565
300.07077
300.06589
300.061
300.05612
300.05124
300.04636
300.04148
300.0366
300.03172
300.02684
300.02196
300.01708
300.0122
300.00732
300.00244
)
;

boundaryField
{
    inlet
    {
        type            fixedValue;
        value           uniform 301;
    }
    outlet
    {
        type            fixedValue;
        value           uniform 300;
    }
    sides
    {
        type            empty;
    }
}


// ************************************************************************* //
